                                                                                     
                             WELCOME TO ABACUS v3.0                                  
                                                                                     
               'Atomic-orbital Based Ab-initio Computation at UStc'                  
                                                                                     
                     Website: http://abacus.ustc.edu.cn/                             
                                                                                     
    Version: Parallel, in development
    Processor Number is 3
    Start Time is Sat Dec  3 05:23:49 2022
                                                                                     
 ------------------------------------------------------------------------------------

 READING GENERAL INFORMATION
                           global_out_dir = OUT.MgO/
                           global_in_card = INPUT
                               pseudo_dir = 
                              orbital_dir = 
                                    DRANK = 1
                                    DSIZE = 3
                                   DCOLOR = 1
                                    GRANK = 1
                                    GSIZE = 1
 The esolver type has been set to : ksdft_pw




 >>>>>>>>>>>>>>>>>>>>>>>>>>>>>>>>>>>>>>>>>>>>>>>>>>>>>>>>>>>>>>>>>>>>>>
 |                                                                    |
 | Reading atom information in unitcell:                              |
 | From the input file and the structure file we know the number of   |
 | different elments in this unitcell, then we list the detail        |
 | information for each element, especially the zeta and polar atomic |
 | orbital number for each element. The total atom number is counted. |
 | We calculate the nearest atom distance for each atom and show the  |
 | Cartesian and Direct coordinates for each atom. We list the file   |
 | address for atomic orbitals. The volume and the lattice vectors    |
 | in real and reciprocal space is also shown.                        |
 |                                                                    |
 <<<<<<<<<<<<<<<<<<<<<<<<<<<<<<<<<<<<<<<<<<<<<<<<<<<<<<<<<<<<<<<<<<<<<<




 READING UNITCELL INFORMATION
                                    ntype = 2
                 atom label for species 1 = Mg
                 atom label for species 2 = O
                  lattice constant (Bohr) = 1.88973
              lattice constant (Angstrom) = 1

 READING ATOM TYPE 1
                               atom label = Mg
                      L=0, number of zeta = 1
                      L=1, number of zeta = 1
                      L=2, number of zeta = 1
             number of atom for this type = 4
                      start magnetization = FALSE
                      start magnetization = FALSE
                      start magnetization = FALSE
                      start magnetization = FALSE

 READING ATOM TYPE 2
                               atom label = O
                      L=0, number of zeta = 1
                      L=1, number of zeta = 1
                      L=2, number of zeta = 1
             number of atom for this type = 4
                      start magnetization = FALSE
                      start magnetization = FALSE
                      start magnetization = FALSE
                      start magnetization = FALSE

                        TOTAL ATOM NUMBER = 8

 DIRECT COORDINATES
         atom                   x                   y                   z                 mag                  vx                  vy                  vz
     taud_Mg1                   0                   0                   0                   0                   0                   0                   0
     taud_Mg2                   0                 0.5                 0.5                   0                   0                   0                   0
     taud_Mg3                 0.5                   0                 0.5                   0                   0                   0                   0
     taud_Mg4                 0.5                 0.5                   0                   0                   0                   0                   0
      taud_O1                 0.5                   0                   0                   0                   0                   0                   0
      taud_O2                 0.5                 0.5                 0.5                   0                   0                   0                   0
      taud_O3                   0                   0                 0.5                   0                   0                   0                   0
      taud_O4                   0                 0.5                   0                   0                   0                   0                   0


                          Volume (Bohr^3) = 520.413
                             Volume (A^3) = 77.1172

 Lattice vectors: (Cartesian coordinate: in unit of a_0)
             +4.25648                  +0                  +0
                   +0            +4.25648                  +0
                   +0                  +0            +4.25648
 Reciprocal vectors: (Cartesian coordinate: in unit of 2 pi/a_0)
            +0.234936                  -0                  +0
                   -0           +0.234936                  -0
                   +0                  -0           +0.234936




 >>>>>>>>>>>>>>>>>>>>>>>>>>>>>>>>>>>>>>>>>>>>>>>>>>>>>>>>>>>>>>>>>>>>>>
 |                                                                    |
 | Reading pseudopotentials files:                                    |
 | The pseudopotential file is in UPF format. The 'NC' indicates that |
 | the type of pseudopotential is 'norm conserving'. Functional of    |
 | exchange and correlation is decided by 4 given parameters in UPF   |
 | file.  We also read in the 'core correction' if there exists.      |
 | Also we can read the valence electrons number and the maximal      |
 | angular momentum used in this pseudopotential. We also read in the |
 | trail wave function, trail atomic density and local-pseudopotential|
 | on logrithmic grid. The non-local pseudopotential projector is also|
 | read in if there is any.                                           |
 |                                                                    |
 <<<<<<<<<<<<<<<<<<<<<<<<<<<<<<<<<<<<<<<<<<<<<<<<<<<<<<<<<<<<<<<<<<<<<<




                PAO radial cut off (Bohr) = 15

 Read in pseudopotential file is Mg_ONCV_PBE-1.0.upf
                     pseudopotential type = NC
          exchange-correlation functional = PBE
                 nonlocal core correction = 0
                        valence electrons = 10
                                     lmax = 1
                           number of zeta = 0
                     number of projectors = 4
                           L of projector = 0
                           L of projector = 0
                           L of projector = 1
                           L of projector = 1
                PAO radial cut off (Bohr) = 15

 Read in pseudopotential file is O_ONCV_PBE-1.0.upf
                     pseudopotential type = NC
          exchange-correlation functional = PBE
                 nonlocal core correction = 0
                        valence electrons = 6
                                     lmax = 1
                           number of zeta = 0
                     number of projectors = 4
                           L of projector = 0
                           L of projector = 0
                           L of projector = 1
                           L of projector = 1
     initial pseudo atomic orbital number = 0
                                   NLOCAL = 72

%%%%%%%%%%%%%%%%%%%%%%%%%%%%%%%%%%%%%%%%%%%%%%%%%%%%%%%%%%%%%%%%%%%%%%%
 Warning: number valence electrons > 2 for Mg: [Ne] 3s2
 Please make sure the pseudopential file is what you need
%%%%%%%%%%%%%%%%%%%%%%%%%%%%%%%%%%%%%%%%%%%%%%%%%%%%%%%%%%%%%%%%%%%%%%%
                  




 >>>>>>>>>>>>>>>>>>>>>>>>>>>>>>>>>>>>>>>>>>>>>>>>>>>>>>>>>>>>>>>>>>>>>>
 |                                                                    |
 | Setup plane waves of charge/potential:                             |
 | Use the energy cutoff and the lattice vectors to generate the      |
 | dimensions of FFT grid. The number of FFT grid on each processor   |
 | is 'nrxx'. The number of plane wave basis in reciprocal space is   |
 | different for charege/potential and wave functions. We also set    |
 | the 'sticks' for the parallel of FFT. The number of plane waves    |
 | is 'npw' in each processor.                                        |
 <<<<<<<<<<<<<<<<<<<<<<<<<<<<<<<<<<<<<<<<<<<<<<<<<<<<<<<<<<<<<<<<<<<<<<





 SETUP THE PLANE WAVE BASIS
 energy cutoff for charge/potential (unit:Ry) = 400
          [fft grid for charge/potential] = 54, 54, 54
                      [fft grid division] = 1, 1, 1
      [big fft grid for charge/potential] = 54, 54, 54
                                     nbxx = 52488
                                     nrxx = 52488

 SETUP PLANE WAVES FOR CHARGE/POTENTIAL
                    number of plane waves = 70319
                         number of sticks = 2061

 PARALLEL PW FOR CHARGE/POTENTIAL
     PROC   COLUMNS(POT)             PW
        1            687          23439
        2            687          23439
        3            687          23441
 --------------- sum -------------------
        3           2061          70319
                            number of |g| = 543
                                  max |g| = 36.0975
                                  min |g| = 0.0551949

 SETUP THE ELECTRONS NUMBER
            electron number of element Mg = 10
      total electron number of element Mg = 40
             electron number of element O = 6
       total electron number of element O = 24
            AUTOSET number of electrons:  = 64
 DONE : SETUP UNITCELL Time : 0.208366 (SEC)





 >>>>>>>>>>>>>>>>>>>>>>>>>>>>>>>>>>>>>>>>>>>>>>>>>>>>>>>>>>>>>>>>>>>>>>
 |                                                                    |
 | Setup K-points                                                     |
 | We setup the k-points according to input parameters.               |
 | The reduced k-points are set according to symmetry operations.     |
 | We treat the spin as another set of k-points.                      |
 |                                                                    |
 <<<<<<<<<<<<<<<<<<<<<<<<<<<<<<<<<<<<<<<<<<<<<<<<<<<<<<<<<<<<<<<<<<<<<<





 SETUP K-POINTS
                                    nspin = 1
                   Input type of k points = Monkhorst-Pack(Gamma)
                                   nkstot = 64
                               nkstot_ibz = 36
      IBZ             DirectX             DirectY             DirectZ              Weight    ibz2bz
        1                   0                   0                   0            0.015625         0
        2                0.75                   0                   0             0.03125         1
        3                 0.5                   0                   0            0.015625         2
        4                   0                0.75                   0             0.03125         4
        5                0.75                0.75                   0             0.03125         5
        6                 0.5                0.75                   0             0.03125         6
        7                0.25                0.75                   0             0.03125         7
        8                   0                 0.5                   0            0.015625         8
        9                0.75                 0.5                   0             0.03125         9
       10                 0.5                 0.5                   0            0.015625        10
       11                   0                   0                0.75             0.03125        16
       12                0.75                   0                0.75             0.03125        17
       13                 0.5                   0                0.75             0.03125        18
       14                0.25                   0                0.75             0.03125        19
       15                   0                0.75                0.75             0.03125        20
       16                0.75                0.75                0.75             0.03125        21
       17                 0.5                0.75                0.75             0.03125        22
       18                0.25                0.75                0.75             0.03125        23
       19                   0                 0.5                0.75             0.03125        24
       20                0.75                 0.5                0.75             0.03125        25
       21                 0.5                 0.5                0.75             0.03125        26
       22                0.25                 0.5                0.75             0.03125        27
       23                   0                0.25                0.75             0.03125        28
       24                0.75                0.25                0.75             0.03125        29
       25                 0.5                0.25                0.75             0.03125        30
       26                0.25                0.25                0.75             0.03125        31
       27                   0                   0                 0.5            0.015625        32
       28                0.75                   0                 0.5             0.03125        33
       29                 0.5                   0                 0.5            0.015625        34
       30                   0                0.75                 0.5             0.03125        36
       31                0.75                0.75                 0.5             0.03125        37
       32                 0.5                0.75                 0.5             0.03125        38
       33                0.25                0.75                 0.5             0.03125        39
       34                   0                 0.5                 0.5            0.015625        40
       35                0.75                 0.5                 0.5             0.03125        41
       36                 0.5                 0.5                 0.5            0.015625        42
                               nkstot now = 36

  KPOINTS            DIRECT_X            DIRECT_Y            DIRECT_Z              WEIGHT
        1                   0                   0                   0            0.015625
        2                0.75                   0                   0             0.03125
        3                 0.5                   0                   0            0.015625
        4                   0                0.75                   0             0.03125
        5                0.75                0.75                   0             0.03125
        6                 0.5                0.75                   0             0.03125
        7                0.25                0.75                   0             0.03125
        8                   0                 0.5                   0            0.015625
        9                0.75                 0.5                   0             0.03125
       10                 0.5                 0.5                   0            0.015625
       11                   0                   0                0.75             0.03125
       12                0.75                   0                0.75             0.03125
       13                 0.5                   0                0.75             0.03125
       14                0.25                   0                0.75             0.03125
       15                   0                0.75                0.75             0.03125
       16                0.75                0.75                0.75             0.03125
       17                 0.5                0.75                0.75             0.03125
       18                0.25                0.75                0.75             0.03125
       19                   0                 0.5                0.75             0.03125
       20                0.75                 0.5                0.75             0.03125
       21                 0.5                 0.5                0.75             0.03125
       22                0.25                 0.5                0.75             0.03125
       23                   0                0.25                0.75             0.03125
       24                0.75                0.25                0.75             0.03125
       25                 0.5                0.25                0.75             0.03125
       26                0.25                0.25                0.75             0.03125
       27                   0                   0                 0.5            0.015625
       28                0.75                   0                 0.5             0.03125
       29                 0.5                   0                 0.5            0.015625
       30                   0                0.75                 0.5             0.03125
       31                0.75                0.75                 0.5             0.03125
       32                 0.5                0.75                 0.5             0.03125
       33                0.25                0.75                 0.5             0.03125
       34                   0                 0.5                 0.5            0.015625
       35                0.75                 0.5                 0.5             0.03125
       36                 0.5                 0.5                 0.5            0.015625

           k-point number in this process = 36
       minimum distributed K point number = 36

  KPOINTS         CARTESIAN_X         CARTESIAN_Y         CARTESIAN_Z              WEIGHT
        1                   0                   0                   0             0.03125
        2            0.176202                   0                   0              0.0625
        3            0.117468                   0                   0             0.03125
        4                   0            0.176202                   0              0.0625
        5            0.176202            0.176202                   0              0.0625
        6            0.117468            0.176202                   0              0.0625
        7            0.058734            0.176202                   0              0.0625
        8                   0            0.117468                   0             0.03125
        9            0.176202            0.117468                   0              0.0625
       10            0.117468            0.117468                   0             0.03125
       11                   0                   0            0.176202              0.0625
       12            0.176202                   0            0.176202              0.0625
       13            0.117468                   0            0.176202              0.0625
       14            0.058734                   0            0.176202              0.0625
       15                   0            0.176202            0.176202              0.0625
       16            0.176202            0.176202            0.176202              0.0625
       17            0.117468            0.176202            0.176202              0.0625
       18            0.058734            0.176202            0.176202              0.0625
       19                   0            0.117468            0.176202              0.0625
       20            0.176202            0.117468            0.176202              0.0625
       21            0.117468            0.117468            0.176202              0.0625
       22            0.058734            0.117468            0.176202              0.0625
       23                   0            0.058734            0.176202              0.0625
       24            0.176202            0.058734            0.176202              0.0625
       25            0.117468            0.058734            0.176202              0.0625
       26            0.058734            0.058734            0.176202              0.0625
       27                   0                   0            0.117468             0.03125
       28            0.176202                   0            0.117468              0.0625
       29            0.117468                   0            0.117468             0.03125
       30                   0            0.176202            0.117468              0.0625
       31            0.176202            0.176202            0.117468              0.0625
       32            0.117468            0.176202            0.117468              0.0625
       33            0.058734            0.176202            0.117468              0.0625
       34                   0            0.117468            0.117468             0.03125
       35            0.176202            0.117468            0.117468              0.0625
       36            0.117468            0.117468            0.117468             0.03125

  KPOINTS            DIRECT_X            DIRECT_Y            DIRECT_Z              WEIGHT
        1                   0                   0                   0             0.03125
        2                0.75                   0                   0              0.0625
        3                 0.5                   0                   0             0.03125
        4                   0                0.75                   0              0.0625
        5                0.75                0.75                   0              0.0625
        6                 0.5                0.75                   0              0.0625
        7                0.25                0.75                   0              0.0625
        8                   0                 0.5                   0             0.03125
        9                0.75                 0.5                   0              0.0625
       10                 0.5                 0.5                   0             0.03125
       11                   0                   0                0.75              0.0625
       12                0.75                   0                0.75              0.0625
       13                 0.5                   0                0.75              0.0625
       14                0.25                   0                0.75              0.0625
       15                   0                0.75                0.75              0.0625
       16                0.75                0.75                0.75              0.0625
       17                 0.5                0.75                0.75              0.0625
       18                0.25                0.75                0.75              0.0625
       19                   0                 0.5                0.75              0.0625
       20                0.75                 0.5                0.75              0.0625
       21                 0.5                 0.5                0.75              0.0625
       22                0.25                 0.5                0.75              0.0625
       23                   0                0.25                0.75              0.0625
       24                0.75                0.25                0.75              0.0625
       25                 0.5                0.25                0.75              0.0625
       26                0.25                0.25                0.75              0.0625
       27                   0                   0                 0.5             0.03125
       28                0.75                   0                 0.5              0.0625
       29                 0.5                   0                 0.5             0.03125
       30                   0                0.75                 0.5              0.0625
       31                0.75                0.75                 0.5              0.0625
       32                 0.5                0.75                 0.5              0.0625
       33                0.25                0.75                 0.5              0.0625
       34                   0                 0.5                 0.5             0.03125
       35                0.75                 0.5                 0.5              0.0625
       36                 0.5                 0.5                 0.5             0.03125
 DONE : INIT K-POINTS Time : 0.233337 (SEC)





 >>>>>>>>>>>>>>>>>>>>>>>>>>>>>>>>>>>>>>>>>>>>>>>>>>>>>>>>>>>>>>>>>>>>>>
 |                                                                    |
 | Setup plane waves of wave functions:                               |
 | Use the energy cutoff and the lattice vectors to generate the      |
 | dimensions of FFT grid. The number of FFT grid on each processor   |
 | is 'nrxx'. The number of plane wave basis in reciprocal space is   |
 | different for charege/potential and wave functions. We also set    |
 | the 'sticks' for the parallel of FFT. The number of plane wave of  |
 | each k-point is 'npwk[ik]' in each processor                       |
 <<<<<<<<<<<<<<<<<<<<<<<<<<<<<<<<<<<<<<<<<<<<<<<<<<<<<<<<<<<<<<<<<<<<<<





 SETUP PLANE WAVES FOR WAVE FUNCTIONS
     energy cutoff for wavefunc (unit:Ry) = 100
            [fft grid for wave functions] = 54, 54, 54
                    number of plane waves = 11753
                         number of sticks = 621

 PARALLEL PW FOR WAVE FUNCTIONS
     PROC   COLUMNS(POT)             PW
        1            207           3919
        2            207           3917
        3            207           3917
 --------------- sum -------------------
        3            621          11753
 DONE : INIT PLANEWAVE Time : 0.303693 (SEC)

                           occupied bands = 32
                                   NBANDS = 42
                                     npwx = 2946

 SETUP NONLOCAL PSEUDOPOTENTIALS IN PLANE WAVE BASIS
 Mg non-local projectors:
 projector 1 L=0
 projector 2 L=0
 projector 3 L=1
 projector 4 L=1
 O non-local projectors:
 projector 1 L=0
 projector 2 L=0
 projector 3 L=1
 projector 4 L=1
      TOTAL NUMBER OF NONLOCAL PROJECTORS = 64
 DONE : LOCAL POTENTIAL Time : 0.347614 (SEC)


 Init Non-Local PseudoPotential table : 
 Init Non-Local-Pseudopotential done.
 DONE : NON-LOCAL POTENTIAL Time : 0.389466 (SEC)


 Make real space PAO into reciprocal space.
       max mesh points in Pseudopotential = 601
     dq(describe PAO in reciprocal space) = 0.01
                                    max q = 1206

 number of pseudo atomic orbitals for Mg is 0

 number of pseudo atomic orbitals for O is 0
 DONE : INIT BASIS Time : 0.390131 (SEC)

Successful completion of Potential's registration : local
Successful completion of Potential's registration : hartree
Successful completion of Potential's registration : xc
                                 init_chg = atomic
 DONE : INIT SCF Time : 0.447851 (SEC)


 PW ALGORITHM --------------- ION=   1  ELEC=   1--------------------------------
Average iterative diagonalization steps: 9.55291 ; where current threshold is: 0.01 . 

 Density error is 1.70425931804
                          Error Threshold = 0.01

       Energy                       Rydberg                            eV
   E_KohnSham                -562.559985234                -7654.02126597
     E_Harris                 -563.82937908                -7671.29225528
      E_Fermi               +0.378442385926                +5.14897281331

 PW ALGORITHM --------------- ION=   1  ELEC=   2--------------------------------
Average iterative diagonalization steps: 2.90343915344 ; where current threshold is: 0.00266290518443 . 

 Density error is 1.4313576153
                          Error Threshold = 0.00266290518443

       Energy                       Rydberg                            eV
   E_KohnSham                 -563.22008613                -7663.00239941
     E_Harris                -563.855972745                -7671.65408067
      E_Fermi               +0.793890887252                +10.8014396569

 PW ALGORITHM --------------- ION=   1  ELEC=   3--------------------------------
Average iterative diagonalization steps: 2.3082010582 ; where current threshold is: 0.00223649627391 . 

 Density error is 0.0556339034359
                          Error Threshold = 0.00223649627391

       Energy                       Rydberg                            eV
   E_KohnSham                -563.386749212                -7665.26996697
     E_Harris                -563.415323582                -7665.65874123
      E_Fermi               +0.631287354652                +8.58910509861

 PW ALGORITHM --------------- ION=   1  ELEC=   4--------------------------------
Average iterative diagonalization steps: 3.24338624339 ; where current threshold is: 8.69279741186e-05 . 

 Density error is 0.0164788056485
                          Error Threshold = 8.69279741186e-05

       Energy                       Rydberg                            eV
   E_KohnSham                -563.414808286                -7665.65173027
     E_Harris                -563.422129314                -7665.75133796
      E_Fermi                +0.59322886336                +8.07129275975

 PW ALGORITHM --------------- ION=   1  ELEC=   5--------------------------------
Average iterative diagonalization steps: 2.43849206349 ; where current threshold is: 2.57481338258e-05 . 

 Density error is 0.000633714188848
                          Error Threshold = 2.57481338258e-05

       Energy                       Rydberg                            eV
   E_KohnSham                -563.416952891                -7665.68090911
     E_Harris                -563.417381792                -7665.68674462
      E_Fermi               +0.611043776271                +8.31367708472

 PW ALGORITHM --------------- ION=   1  ELEC=   6--------------------------------
Average iterative diagonalization steps: 3.86177248677 ; where current threshold is: 9.90178420075e-07 . 

 Density error is 0.00112550257605
                          Error Threshold = 9.90178420075e-07

       Energy                       Rydberg                            eV
   E_KohnSham                -563.417628905                -7665.69010676
     E_Harris                -563.417836101                -7665.69292581
      E_Fermi               +0.618930600904                +8.42098283885

 PW ALGORITHM --------------- ION=   1  ELEC=   7--------------------------------
Average iterative diagonalization steps: 2.0582010582 ; where current threshold is: 9.90178420075e-07 . 

 Density error is 0.000637985256305
                          Error Threshold = 9.90178420075e-07

       Energy                       Rydberg                            eV
   E_KohnSham                -563.417355352                -7665.68638487
     E_Harris                -563.417663578                -7665.69057851
      E_Fermi               +0.617620630184                +8.40315977286

 PW ALGORITHM --------------- ION=   1  ELEC=   8--------------------------------
Average iterative diagonalization steps: 2.49537037037 ; where current threshold is: 9.90178420075e-07 . 

 Density error is 9.4430656203e-07
                          Error Threshold = 9.90178420075e-07

       Energy                       Rydberg                            eV
   E_KohnSham                -563.417497542                -7665.68831948
     E_Harris                 -563.41749824                -7665.68832897
       E_band                -85.2612869027                -1160.03932069
   E_one_elec                -232.036478803                -3157.01825557
    E_Hartree                +128.459986385                +1747.78777984
         E_xc                -84.7298699752                -1152.80902246
      E_Ewald                -375.111135149                -5103.64882128
      E_demet                            +0                            +0
      E_descf                            +0                            +0
        E_exx                            +0                            +0
      E_Fermi               +0.613625093114                +8.34879770213

 charge density convergence is achieved
 final etot is -7665.68831948 eV

 STATE ENERGY(eV) AND OCCUPATIONS    NSPIN == 1
 1/36 kpoint (Cartesian) = 0 0 0 (2918 pws)
       1       -64.1234      0.0312500
       2       -64.1138      0.0312500
       3       -64.1137      0.0312500
       4       -64.1135      0.0312500
       5       -30.9378      0.0312500
       6       -30.9378      0.0312500
       7       -30.9378      0.0312500
       8       -30.8994      0.0312500
       9       -30.8994      0.0312500
      10       -30.8994      0.0312500
      11       -30.8993      0.0312500
      12       -30.8993      0.0312500
      13       -30.8992      0.0312500
      14       -30.8741      0.0312500
      15       -30.8741      0.0312500
      16       -30.8741      0.0312500
      17       -8.70332      0.0312500
      18       -7.25533      0.0312500
      19       -7.25486      0.0312500
      20       -7.25298      0.0312500
      21        4.43007      0.0312500
      22        4.43007      0.0312500
      23        4.43007      0.0312500
      24        7.05555      0.0312500
      25        7.05560      0.0312500
      26        7.05587      0.0312500
      27        7.05670      0.0312500
      28        7.05696      0.0312500
      29        7.05701      0.0312500
      30        8.34879      0.0312500
      31        8.34879      0.0312500
      32        8.34880      0.0312500
      33        12.8126        0.00000
      34        17.4941        0.00000
      35        17.4941        0.00000
      36        17.4941        0.00000
      37        18.0427        0.00000
      38        18.0428        0.00000
      39        18.0428        0.00000
      40        21.1102        0.00000
      41        21.1102        0.00000
      42        21.1102        0.00000

 2/36 kpoint (Cartesian) = 0.176202 0.00000 0.00000 (2911 pws)
       1       -64.1220      0.0625000
       2       -64.1151      0.0625000
       3       -64.1137      0.0625000
       4       -64.1136      0.0625000
       5       -30.9322      0.0625000
       6       -30.9322      0.0625000
       7       -30.9295      0.0625000
       8       -30.9049      0.0625000
       9       -30.9049      0.0625000
      10       -30.9002      0.0625000
      11       -30.9001      0.0625000
      12       -30.8956      0.0625000
      13       -30.8956      0.0625000
      14       -30.8844      0.0625000
      15       -30.8778      0.0625000
      16       -30.8778      0.0625000
      17       -8.49515      0.0625000
      18       -7.46900      0.0625000
      19       -7.22678      0.0625000
      20       -7.22520      0.0625000
      21        4.71994      0.0625000
      22        4.71994      0.0625000
      23        4.76658      0.0625000
      24        6.53249      0.0625000
      25        6.53250      0.0625000
      26        6.84676      0.0625000
      27        6.84807      0.0625000
      28        7.21917      0.0625000
      29        7.21917      0.0625000
      30        7.33609      0.0625000
      31        8.12790      0.0625000
      32        8.12791      0.0625000
      33        14.0169        0.00000
      34        17.7353        0.00000
      35        17.9981        0.00000
      36        18.3065        0.00000
      37        18.3065        0.00000
      38        18.9069        0.00000
      39        18.9070        0.00000
      40        20.8014        0.00000
      41        20.8014        0.00000
      42        21.4438        0.00000

 3/36 kpoint (Cartesian) = 0.117468 0.00000 0.00000 (2916 pws)
       1       -64.1186      0.0312500
       2       -64.1185      0.0312500
       3       -64.1137      0.0312500
       4       -64.1136      0.0312500
       5       -30.9186      0.0312500
       6       -30.9186      0.0312500
       7       -30.9185      0.0312500
       8       -30.9185      0.0312500
       9       -30.9080      0.0312500
      10       -30.9079      0.0312500
      11       -30.9010      0.0312500
      12       -30.9010      0.0312500
      13       -30.8867      0.0312500
      14       -30.8867      0.0312500
      15       -30.8866      0.0312500
      16       -30.8866      0.0312500
      17       -7.98629      0.0312500
      18       -7.98484      0.0312500
      19       -7.19812      0.0312500
      20       -7.19654      0.0312500
      21        5.51884      0.0312500
      22        5.51885      0.0312500
      23        5.51997      0.0312500
      24        5.51997      0.0312500
      25        5.79662      0.0312500
      26        5.79760      0.0312500
      27        6.64873      0.0312500
      28        6.65001      0.0312500
      29        7.64439      0.0312500
      30        7.64440      0.0312500
      31        7.64583      0.0312500
      32        7.64583      0.0312500
      33        16.1253        0.00000
      34        16.1254        0.00000
      35        19.4969        0.00000
      36        19.4972        0.00000
      37        19.8034        0.00000
      38        19.8034        0.00000
      39        19.8040        0.00000
      40        19.8040        0.00000
      41        20.1866        0.00000
      42        20.1868        0.00000

 4/36 kpoint (Cartesian) = 0.00000 0.176202 0.00000 (2920 pws)
       1       -64.1220      0.0625000
       2       -64.1151      0.0625000
       3       -64.1138      0.0625000
       4       -64.1135      0.0625000
       5       -30.9322      0.0625000
       6       -30.9322      0.0625000
       7       -30.9295      0.0625000
       8       -30.9049      0.0625000
       9       -30.9049      0.0625000
      10       -30.9002      0.0625000
      11       -30.9001      0.0625000
      12       -30.8956      0.0625000
      13       -30.8956      0.0625000
      14       -30.8844      0.0625000
      15       -30.8778      0.0625000
      16       -30.8778      0.0625000
      17       -8.49515      0.0625000
      18       -7.46900      0.0625000
      19       -7.22684      0.0625000
      20       -7.22515      0.0625000
      21        4.71994      0.0625000
      22        4.71994      0.0625000
      23        4.76658      0.0625000
      24        6.53249      0.0625000
      25        6.53250      0.0625000
      26        6.84671      0.0625000
      27        6.84812      0.0625000
      28        7.21917      0.0625000
      29        7.21917      0.0625000
      30        7.33609      0.0625000
      31        8.12790      0.0625000
      32        8.12791      0.0625000
      33        14.0169        0.00000
      34        17.7353        0.00000
      35        17.9981        0.00000
      36        18.3065        0.00000
      37        18.3065        0.00000
      38        18.9069        0.00000
      39        18.9070        0.00000
      40        20.8014        0.00000
      41        20.8014        0.00000
      42        21.4438        0.00000

 5/36 kpoint (Cartesian) = 0.176202 0.176202 0.00000 (2909 pws)
       1       -64.1208      0.0625000
       2       -64.1150      0.0625000
       3       -64.1148      0.0625000
       4       -64.1138      0.0625000
       5       -30.9292      0.0625000
       6       -30.9291      0.0625000
       7       -30.9268      0.0625000
       8       -30.9155      0.0625000
       9       -30.9010      0.0625000
      10       -30.9008      0.0625000
      11       -30.8979      0.0625000
      12       -30.8939      0.0625000
      13       -30.8938      0.0625000
      14       -30.8933      0.0625000
      15       -30.8817      0.0625000
      16       -30.8755      0.0625000
      17       -8.30525      0.0625000
      18       -7.40486      0.0625000
      19       -7.40394      0.0625000
      20       -7.23103      0.0625000
      21        4.83369      0.0625000
      22        4.83400      0.0625000
      23        5.00026      0.0625000
      24        5.74614      0.0625000
      25        6.52448      0.0625000
      26        6.72990      0.0625000
      27        6.73068      0.0625000
      28        7.16013      0.0625000
      29        7.16059      0.0625000
      30        7.25901      0.0625000
      31        7.84999      0.0625000
      32        8.18157      0.0625000
      33        14.7949        0.00000
      34        18.3198        0.00000
      35        18.3198        0.00000
      36        18.3280        0.00000
      37        18.6870        0.00000
      38        18.6872        0.00000
      39        19.8097        0.00000
      40        20.5977        0.00000
      41        21.1482        0.00000
      42        21.2424        0.00000

 6/36 kpoint (Cartesian) = 0.117468 0.176202 0.00000 (2913 pws)
       1       -64.1179      0.0625000
       2       -64.1177      0.0625000
       3       -64.1144      0.0625000
       4       -64.1143      0.0625000
       5       -30.9254      0.0625000
       6       -30.9253      0.0625000
       7       -30.9170      0.0625000
       8       -30.9170      0.0625000
       9       -30.9139      0.0625000
      10       -30.9138      0.0625000
      11       -30.8914      0.0625000
      12       -30.8913      0.0625000
      13       -30.8913      0.0625000
      14       -30.8913      0.0625000
      15       -30.8821      0.0625000
      16       -30.8821      0.0625000
      17       -7.85018      0.0625000
      18       -7.84871      0.0625000
      19       -7.28843      0.0625000
      20       -7.28686      0.0625000
      21        5.09214      0.0625000
      22        5.09260      0.0625000
      23        5.42601      0.0625000
      24        5.42647      0.0625000
      25        5.76840      0.0625000
      26        5.76955      0.0625000
      27        7.22201      0.0625000
      28        7.22257      0.0625000
      29        7.25046      0.0625000
      30        7.25183      0.0625000
      31        7.76886      0.0625000
      32        7.76963      0.0625000
      33        16.5516        0.00000
      34        16.5517        0.00000
      35        18.8644        0.00000
      36        18.8648        0.00000
      37        19.7515        0.00000
      38        19.7520        0.00000
      39        19.8814        0.00000
      40        19.8820        0.00000
      41        20.7503        0.00000
      42        20.7504        0.00000

 7/36 kpoint (Cartesian) = 0.0587340 0.176202 0.00000 (2925 pws)
       1       -64.1208      0.0625000
       2       -64.1150      0.0625000
       3       -64.1148      0.0625000
       4       -64.1138      0.0625000
       5       -30.9292      0.0625000
       6       -30.9291      0.0625000
       7       -30.9268      0.0625000
       8       -30.9155      0.0625000
       9       -30.9010      0.0625000
      10       -30.9008      0.0625000
      11       -30.8979      0.0625000
      12       -30.8939      0.0625000
      13       -30.8938      0.0625000
      14       -30.8933      0.0625000
      15       -30.8817      0.0625000
      16       -30.8755      0.0625000
      17       -8.30525      0.0625000
      18       -7.40486      0.0625000
      19       -7.40394      0.0625000
      20       -7.23103      0.0625000
      21        4.83369      0.0625000
      22        4.83401      0.0625000
      23        5.00026      0.0625000
      24        5.74614      0.0625000
      25        6.52448      0.0625000
      26        6.72990      0.0625000
      27        6.73068      0.0625000
      28        7.16013      0.0625000
      29        7.16058      0.0625000
      30        7.25902      0.0625000
      31        7.84999      0.0625000
      32        8.18157      0.0625000
      33        14.7949        0.00000
      34        18.3198        0.00000
      35        18.3198        0.00000
      36        18.3280        0.00000
      37        18.6870        0.00000
      38        18.6872        0.00000
      39        19.8097        0.00000
      40        20.5977        0.00000
      41        21.1480        0.00000
      42        21.2424        0.00000

 8/36 kpoint (Cartesian) = 0.00000 0.117468 0.00000 (2936 pws)
       1       -64.1186      0.0312500
       2       -64.1184      0.0312500
       3       -64.1138      0.0312500
       4       -64.1136      0.0312500
       5       -30.9186      0.0312500
       6       -30.9186      0.0312500
       7       -30.9184      0.0312500
       8       -30.9184      0.0312500
       9       -30.9080      0.0312500
      10       -30.9079      0.0312500
      11       -30.9010      0.0312500
      12       -30.9009      0.0312500
      13       -30.8868      0.0312500
      14       -30.8868      0.0312500
      15       -30.8866      0.0312500
      16       -30.8866      0.0312500
      17       -7.98634      0.0312500
      18       -7.98478      0.0312500
      19       -7.19817      0.0312500
      20       -7.19648      0.0312500
      21        5.51880      0.0312500
      22        5.51881      0.0312500
      23        5.52001      0.0312500
      24        5.52001      0.0312500
      25        5.79658      0.0312500
      26        5.79764      0.0312500
      27        6.64868      0.0312500
      28        6.65005      0.0312500
      29        7.64434      0.0312500
      30        7.64434      0.0312500
      31        7.64588      0.0312500
      32        7.64589      0.0312500
      33        16.1253        0.00000
      34        16.1254        0.00000
      35        19.4969        0.00000
      36        19.4972        0.00000
      37        19.8034        0.00000
      38        19.8034        0.00000
      39        19.8040        0.00000
      40        19.8040        0.00000
      41        20.1866        0.00000
      42        20.1868        0.00000

 9/36 kpoint (Cartesian) = 0.176202 0.117468 0.00000 (2919 pws)
       1       -64.1179      0.0625000
       2       -64.1177      0.0625000
       3       -64.1145      0.0625000
       4       -64.1143      0.0625000
       5       -30.9254      0.0625000
       6       -30.9253      0.0625000
       7       -30.9170      0.0625000
       8       -30.9170      0.0625000
       9       -30.9139      0.0625000
      10       -30.9138      0.0625000
      11       -30.8914      0.0625000
      12       -30.8914      0.0625000
      13       -30.8913      0.0625000
      14       -30.8912      0.0625000
      15       -30.8821      0.0625000
      16       -30.8821      0.0625000
      17       -7.85024      0.0625000
      18       -7.84866      0.0625000
      19       -7.28848      0.0625000
      20       -7.28681      0.0625000
      21        5.09213      0.0625000
      22        5.09261      0.0625000
      23        5.42599      0.0625000
      24        5.42648      0.0625000
      25        5.76836      0.0625000
      26        5.76960      0.0625000
      27        7.22199      0.0625000
      28        7.22259      0.0625000
      29        7.25041      0.0625000
      30        7.25188      0.0625000
      31        7.76883      0.0625000
      32        7.76966      0.0625000
      33        16.5516        0.00000
      34        16.5517        0.00000
      35        18.8643        0.00000
      36        18.8648        0.00000
      37        19.7515        0.00000
      38        19.7520        0.00000
      39        19.8813        0.00000
      40        19.8820        0.00000
      41        20.7503        0.00000
      42        20.7504        0.00000

 10/36 kpoint (Cartesian) = 0.117468 0.117468 0.00000 (2946 pws)
       1       -64.1162      0.0312500
       2       -64.1162      0.0312500
       3       -64.1161      0.0312500
       4       -64.1158      0.0312500
       5       -30.9268      0.0312500
       6       -30.9267      0.0312500
       7       -30.9266      0.0312500
       8       -30.9266      0.0312500
       9       -30.9026      0.0312500
      10       -30.9026      0.0312500
      11       -30.9026      0.0312500
      12       -30.9023      0.0312500
      13       -30.8821      0.0312500
      14       -30.8821      0.0312500
      15       -30.8819      0.0312500
      16       -30.8819      0.0312500
      17       -7.54683      0.0312500
      18       -7.54622      0.0312500
      19       -7.54611      0.0312500
      20       -7.54368      0.0312500
      21        4.96798      0.0312500
      22        4.96809      0.0312500
      23        4.96860      0.0312500
      24        4.96861      0.0312500
      25        6.44060      0.0312500
      26        6.44109      0.0312500
      27        6.44119      0.0312500
      28        6.44317      0.0312500
      29        7.73728      0.0312500
      30        7.73728      0.0312500
      31        7.73815      0.0312500
      32        7.73815      0.0312500
      33        17.5593        0.00000
      34        17.5597        0.00000
      35        17.5597        0.00000
      36        17.5598        0.00000
      37        19.9659        0.00000
      38        19.9662        0.00000
      39        19.9663        0.00000
      40        19.9671        0.00000
      41        22.0552        0.00000
      42        22.0553        0.00000

 11/36 kpoint (Cartesian) = 0.00000 0.00000 0.176202 (2931 pws)
       1       -64.1220      0.0625000
       2       -64.1151      0.0625000
       3       -64.1138      0.0625000
       4       -64.1136      0.0625000
       5       -30.9322      0.0625000
       6       -30.9322      0.0625000
       7       -30.9295      0.0625000
       8       -30.9049      0.0625000
       9       -30.9049      0.0625000
      10       -30.9002      0.0625000
      11       -30.9001      0.0625000
      12       -30.8956      0.0625000
      13       -30.8956      0.0625000
      14       -30.8844      0.0625000
      15       -30.8778      0.0625000
      16       -30.8778      0.0625000
      17       -8.49515      0.0625000
      18       -7.46901      0.0625000
      19       -7.22647      0.0625000
      20       -7.22552      0.0625000
      21        4.71993      0.0625000
      22        4.71994      0.0625000
      23        4.76658      0.0625000
      24        6.53249      0.0625000
      25        6.53250      0.0625000
      26        6.84702      0.0625000
      27        6.84782      0.0625000
      28        7.21917      0.0625000
      29        7.21917      0.0625000
      30        7.33610      0.0625000
      31        8.12790      0.0625000
      32        8.12790      0.0625000
      33        14.0169        0.00000
      34        17.7353        0.00000
      35        17.9981        0.00000
      36        18.3065        0.00000
      37        18.3065        0.00000
      38        18.9069        0.00000
      39        18.9070        0.00000
      40        20.8014        0.00000
      41        20.8014        0.00000
      42        21.4438        0.00000

 12/36 kpoint (Cartesian) = 0.176202 0.00000 0.176202 (2915 pws)
       1       -64.1208      0.0625000
       2       -64.1150      0.0625000
       3       -64.1148      0.0625000
       4       -64.1138      0.0625000
       5       -30.9292      0.0625000
       6       -30.9291      0.0625000
       7       -30.9268      0.0625000
       8       -30.9155      0.0625000
       9       -30.9010      0.0625000
      10       -30.9009      0.0625000
      11       -30.8980      0.0625000
      12       -30.8939      0.0625000
      13       -30.8938      0.0625000
      14       -30.8933      0.0625000
      15       -30.8817      0.0625000
      16       -30.8755      0.0625000
      17       -8.30525      0.0625000
      18       -7.40522      0.0625000
      19       -7.40357      0.0625000
      20       -7.23104      0.0625000
      21        4.83355      0.0625000
      22        4.83415      0.0625000
      23        5.00026      0.0625000
      24        5.74614      0.0625000
      25        6.52448      0.0625000
      26        6.72960      0.0625000
      27        6.73097      0.0625000
      28        7.15994      0.0625000
      29        7.16077      0.0625000
      30        7.25902      0.0625000
      31        7.84999      0.0625000
      32        8.18157      0.0625000
      33        14.7949        0.00000
      34        18.3197        0.00000
      35        18.3199        0.00000
      36        18.3280        0.00000
      37        18.6870        0.00000
      38        18.6872        0.00000
      39        19.8097        0.00000
      40        20.5977        0.00000
      41        21.1480        0.00000
      42        21.2425        0.00000

 13/36 kpoint (Cartesian) = 0.117468 0.00000 0.176202 (2927 pws)
       1       -64.1179      0.0625000
       2       -64.1177      0.0625000
       3       -64.1144      0.0625000
       4       -64.1143      0.0625000
       5       -30.9254      0.0625000
       6       -30.9253      0.0625000
       7       -30.9170      0.0625000
       8       -30.9170      0.0625000
       9       -30.9139      0.0625000
      10       -30.9138      0.0625000
      11       -30.8914      0.0625000
      12       -30.8913      0.0625000
      13       -30.8913      0.0625000
      14       -30.8913      0.0625000
      15       -30.8821      0.0625000
      16       -30.8821      0.0625000
      17       -7.85018      0.0625000
      18       -7.84871      0.0625000
      19       -7.28843      0.0625000
      20       -7.28686      0.0625000
      21        5.09215      0.0625000
      22        5.09259      0.0625000
      23        5.42601      0.0625000
      24        5.42647      0.0625000
      25        5.76839      0.0625000
      26        5.76955      0.0625000
      27        7.22201      0.0625000
      28        7.22257      0.0625000
      29        7.25045      0.0625000
      30        7.25183      0.0625000
      31        7.76887      0.0625000
      32        7.76963      0.0625000
      33        16.5516        0.00000
      34        16.5517        0.00000
      35        18.8644        0.00000
      36        18.8648        0.00000
      37        19.7515        0.00000
      38        19.7520        0.00000
      39        19.8814        0.00000
      40        19.8820        0.00000
      41        20.7503        0.00000
      42        20.7504        0.00000

 14/36 kpoint (Cartesian) = 0.0587340 0.00000 0.176202 (2935 pws)
       1       -64.1208      0.0625000
       2       -64.1150      0.0625000
       3       -64.1148      0.0625000
       4       -64.1138      0.0625000
       5       -30.9292      0.0625000
       6       -30.9291      0.0625000
       7       -30.9268      0.0625000
       8       -30.9155      0.0625000
       9       -30.9010      0.0625000
      10       -30.9009      0.0625000
      11       -30.8979      0.0625000
      12       -30.8939      0.0625000
      13       -30.8938      0.0625000
      14       -30.8933      0.0625000
      15       -30.8817      0.0625000
      16       -30.8755      0.0625000
      17       -8.30525      0.0625000
      18       -7.40522      0.0625000
      19       -7.40357      0.0625000
      20       -7.23104      0.0625000
      21        4.83354      0.0625000
      22        4.83415      0.0625000
      23        5.00026      0.0625000
      24        5.74615      0.0625000
      25        6.52448      0.0625000
      26        6.72960      0.0625000
      27        6.73097      0.0625000
      28        7.15995      0.0625000
      29        7.16077      0.0625000
      30        7.25901      0.0625000
      31        7.84999      0.0625000
      32        8.18157      0.0625000
      33        14.7949        0.00000
      34        18.3197        0.00000
      35        18.3199        0.00000
      36        18.3280        0.00000
      37        18.6870        0.00000
      38        18.6872        0.00000
      39        19.8097        0.00000
      40        20.5977        0.00000
      41        21.1480        0.00000
      42        21.2425        0.00000

 15/36 kpoint (Cartesian) = 0.00000 0.176202 0.176202 (2928 pws)
       1       -64.1208      0.0625000
       2       -64.1149      0.0625000
       3       -64.1148      0.0625000
       4       -64.1138      0.0625000
       5       -30.9292      0.0625000
       6       -30.9291      0.0625000
       7       -30.9268      0.0625000
       8       -30.9155      0.0625000
       9       -30.9010      0.0625000
      10       -30.9009      0.0625000
      11       -30.8979      0.0625000
      12       -30.8939      0.0625000
      13       -30.8938      0.0625000
      14       -30.8933      0.0625000
      15       -30.8818      0.0625000
      16       -30.8755      0.0625000
      17       -8.30525      0.0625000
      18       -7.40517      0.0625000
      19       -7.40363      0.0625000
      20       -7.23104      0.0625000
      21        4.83357      0.0625000
      22        4.83412      0.0625000
      23        5.00026      0.0625000
      24        5.74614      0.0625000
      25        6.52448      0.0625000
      26        6.72964      0.0625000
      27        6.73093      0.0625000
      28        7.15997      0.0625000
      29        7.16074      0.0625000
      30        7.25902      0.0625000
      31        7.84999      0.0625000
      32        8.18157      0.0625000
      33        14.7949        0.00000
      34        18.3197        0.00000
      35        18.3199        0.00000
      36        18.3280        0.00000
      37        18.6870        0.00000
      38        18.6872        0.00000
      39        19.8097        0.00000
      40        20.5977        0.00000
      41        21.1480        0.00000
      42        21.2425        0.00000

 16/36 kpoint (Cartesian) = 0.176202 0.176202 0.176202 (2923 pws)
       1       -64.1197      0.0625000
       2       -64.1150      0.0625000
       3       -64.1149      0.0625000
       4       -64.1147      0.0625000
       5       -30.9334      0.0625000
       6       -30.9333      0.0625000
       7       -30.9332      0.0625000
       8       -30.9117      0.0625000
       9       -30.9008      0.0625000
      10       -30.9008      0.0625000
      11       -30.9006      0.0625000
      12       -30.8907      0.0625000
      13       -30.8906      0.0625000
      14       -30.8906      0.0625000
      15       -30.8781      0.0625000
      16       -30.8781      0.0625000
      17       -8.13565      0.0625000
      18       -7.37228      0.0625000
      19       -7.37182      0.0625000
      20       -7.36996      0.0625000
      21        4.67354      0.0625000
      22        4.67412      0.0625000
      23        4.67429      0.0625000
      24        5.76587      0.0625000
      25        6.51839      0.0625000
      26        6.51877      0.0625000
      27        6.52026      0.0625000
      28        7.37978      0.0625000
      29        7.38064      0.0625000
      30        7.38084      0.0625000
      31        8.03113      0.0625000
      32        8.03114      0.0625000
      33        15.1799        0.00000
      34        17.8609        0.00000
      35        17.8610        0.00000
      36        17.8613        0.00000
      37        19.6757        0.00000
      38        19.6760        0.00000
      39        19.6760        0.00000
      40        20.7603        0.00000
      41        21.3697        0.00000
      42        21.3699        0.00000

 17/36 kpoint (Cartesian) = 0.117468 0.176202 0.176202 (2930 pws)
       1       -64.1174      0.0625000
       2       -64.1172      0.0625000
       3       -64.1149      0.0625000
       4       -64.1148      0.0625000
       5       -30.9370      0.0625000
       6       -30.9369      0.0625000
       7       -30.9287      0.0625000
       8       -30.9287      0.0625000
       9       -30.9003      0.0625000
      10       -30.9002      0.0625000
      11       -30.8882      0.0625000
      12       -30.8882      0.0625000
      13       -30.8844      0.0625000
      14       -30.8843      0.0625000
      15       -30.8840      0.0625000
      16       -30.8840      0.0625000
      17       -7.73993      0.0625000
      18       -7.73845      0.0625000
      19       -7.33868      0.0625000
      20       -7.33712      0.0625000
      21        4.49537      0.0625000
      22        4.49580      0.0625000
      23        4.87304      0.0625000
      24        4.87305      0.0625000
      25        6.50209      0.0625000
      26        6.50335      0.0625000
      27        7.41397      0.0625000
      28        7.41455      0.0625000
      29        7.54288      0.0625000
      30        7.54299      0.0625000
      31        7.69065      0.0625000
      32        7.69211      0.0625000
      33        16.4087        0.00000
      34        16.4088        0.00000
      35        17.8245        0.00000
      36        17.8250        0.00000
      37        20.0796        0.00000
      38        20.0800        0.00000
      39        20.2524        0.00000
      40        20.2528        0.00000
      41        21.5685        0.00000
      42        21.5685        0.00000

 18/36 kpoint (Cartesian) = 0.0587340 0.176202 0.176202 (2929 pws)
       1       -64.1197      0.0625000
       2       -64.1150      0.0625000
       3       -64.1149      0.0625000
       4       -64.1147      0.0625000
       5       -30.9334      0.0625000
       6       -30.9333      0.0625000
       7       -30.9332      0.0625000
       8       -30.9117      0.0625000
       9       -30.9008      0.0625000
      10       -30.9008      0.0625000
      11       -30.9006      0.0625000
      12       -30.8907      0.0625000
      13       -30.8906      0.0625000
      14       -30.8906      0.0625000
      15       -30.8781      0.0625000
      16       -30.8781      0.0625000
      17       -8.13565      0.0625000
      18       -7.37228      0.0625000
      19       -7.37182      0.0625000
      20       -7.36996      0.0625000
      21        4.67353      0.0625000
      22        4.67412      0.0625000
      23        4.67429      0.0625000
      24        5.76587      0.0625000
      25        6.51839      0.0625000
      26        6.51877      0.0625000
      27        6.52026      0.0625000
      28        7.37979      0.0625000
      29        7.38064      0.0625000
      30        7.38084      0.0625000
      31        8.03113      0.0625000
      32        8.03114      0.0625000
      33        15.1799        0.00000
      34        17.8609        0.00000
      35        17.8610        0.00000
      36        17.8613        0.00000
      37        19.6757        0.00000
      38        19.6760        0.00000
      39        19.6760        0.00000
      40        20.7603        0.00000
      41        21.3697        0.00000
      42        21.3699        0.00000

 19/36 kpoint (Cartesian) = 0.00000 0.117468 0.176202 (2938 pws)
       1       -64.1179      0.0625000
       2       -64.1177      0.0625000
       3       -64.1145      0.0625000
       4       -64.1143      0.0625000
       5       -30.9254      0.0625000
       6       -30.9253      0.0625000
       7       -30.9170      0.0625000
       8       -30.9170      0.0625000
       9       -30.9139      0.0625000
      10       -30.9138      0.0625000
      11       -30.8914      0.0625000
      12       -30.8914      0.0625000
      13       -30.8913      0.0625000
      14       -30.8912      0.0625000
      15       -30.8821      0.0625000
      16       -30.8821      0.0625000
      17       -7.85024      0.0625000
      18       -7.84866      0.0625000
      19       -7.28848      0.0625000
      20       -7.28681      0.0625000
      21        5.09213      0.0625000
      22        5.09261      0.0625000
      23        5.42599      0.0625000
      24        5.42648      0.0625000
      25        5.76836      0.0625000
      26        5.76959      0.0625000
      27        7.22199      0.0625000
      28        7.22259      0.0625000
      29        7.25041      0.0625000
      30        7.25187      0.0625000
      31        7.76884      0.0625000
      32        7.76966      0.0625000
      33        16.5516        0.00000
      34        16.5517        0.00000
      35        18.8643        0.00000
      36        18.8648        0.00000
      37        19.7515        0.00000
      38        19.7520        0.00000
      39        19.8813        0.00000
      40        19.8820        0.00000
      41        20.7503        0.00000
      42        20.7504        0.00000

 20/36 kpoint (Cartesian) = 0.176202 0.117468 0.176202 (2920 pws)
       1       -64.1174      0.0625000
       2       -64.1172      0.0625000
       3       -64.1150      0.0625000
       4       -64.1148      0.0625000
       5       -30.9370      0.0625000
       6       -30.9369      0.0625000
       7       -30.9287      0.0625000
       8       -30.9287      0.0625000
       9       -30.9003      0.0625000
      10       -30.9002      0.0625000
      11       -30.8882      0.0625000
      12       -30.8882      0.0625000
      13       -30.8844      0.0625000
      14       -30.8842      0.0625000
      15       -30.8840      0.0625000
      16       -30.8840      0.0625000
      17       -7.73999      0.0625000
      18       -7.73839      0.0625000
      19       -7.33873      0.0625000
      20       -7.33707      0.0625000
      21        4.49535      0.0625000
      22        4.49581      0.0625000
      23        4.87304      0.0625000
      24        4.87305      0.0625000
      25        6.50205      0.0625000
      26        6.50340      0.0625000
      27        7.41394      0.0625000
      28        7.41457      0.0625000
      29        7.54288      0.0625000
      30        7.54299      0.0625000
      31        7.69060      0.0625000
      32        7.69216      0.0625000
      33        16.4087        0.00000
      34        16.4088        0.00000
      35        17.8245        0.00000
      36        17.8250        0.00000
      37        20.0795        0.00000
      38        20.0800        0.00000
      39        20.2523        0.00000
      40        20.2528        0.00000
      41        21.5685        0.00000
      42        21.5685        0.00000

 21/36 kpoint (Cartesian) = 0.117468 0.117468 0.176202 (2933 pws)
       1       -64.1162      0.0625000
       2       -64.1162      0.0625000
       3       -64.1161      0.0625000
       4       -64.1158      0.0625000
       5       -30.9402      0.0625000
       6       -30.9401      0.0625000
       7       -30.9401      0.0625000
       8       -30.9401      0.0625000
       9       -30.8899      0.0625000
      10       -30.8899      0.0625000
      11       -30.8899      0.0625000
      12       -30.8897      0.0625000
      13       -30.8821      0.0625000
      14       -30.8820      0.0625000
      15       -30.8819      0.0625000
      16       -30.8819      0.0625000
      17       -7.50948      0.0625000
      18       -7.50887      0.0625000
      19       -7.50876      0.0625000
      20       -7.50632      0.0625000
      21        4.31460      0.0625000
      22        4.31514      0.0625000
      23        4.31516      0.0625000
      24        4.31520      0.0625000
      25        7.19705      0.0625000
      26        7.19765      0.0625000
      27        7.19773      0.0625000
      28        7.19915      0.0625000
      29        7.73776      0.0625000
      30        7.73777      0.0625000
      31        7.73863      0.0625000
      32        7.73864      0.0625000
      33        16.7225        0.00000
      34        16.7227        0.00000
      35        16.7227        0.00000
      36        16.7231        0.00000
      37        20.3696        0.00000
      38        20.3701        0.00000
      39        20.3701        0.00000
      40        20.3705        0.00000
      41        23.0541        0.00000
      42        23.0542        0.00000

 22/36 kpoint (Cartesian) = 0.0587340 0.117468 0.176202 (2933 pws)
       1       -64.1174      0.0625000
       2       -64.1172      0.0625000
       3       -64.1150      0.0625000
       4       -64.1148      0.0625000
       5       -30.9370      0.0625000
       6       -30.9369      0.0625000
       7       -30.9287      0.0625000
       8       -30.9287      0.0625000
       9       -30.9003      0.0625000
      10       -30.9002      0.0625000
      11       -30.8882      0.0625000
      12       -30.8882      0.0625000
      13       -30.8844      0.0625000
      14       -30.8842      0.0625000
      15       -30.8840      0.0625000
      16       -30.8840      0.0625000
      17       -7.73999      0.0625000
      18       -7.73839      0.0625000
      19       -7.33873      0.0625000
      20       -7.33707      0.0625000
      21        4.49535      0.0625000
      22        4.49582      0.0625000
      23        4.87304      0.0625000
      24        4.87305      0.0625000
      25        6.50205      0.0625000
      26        6.50339      0.0625000
      27        7.41395      0.0625000
      28        7.41457      0.0625000
      29        7.54288      0.0625000
      30        7.54299      0.0625000
      31        7.69059      0.0625000
      32        7.69216      0.0625000
      33        16.4087        0.00000
      34        16.4088        0.00000
      35        17.8245        0.00000
      36        17.8250        0.00000
      37        20.0795        0.00000
      38        20.0800        0.00000
      39        20.2523        0.00000
      40        20.2528        0.00000
      41        21.5685        0.00000
      42        21.5685        0.00000

 23/36 kpoint (Cartesian) = 0.00000 0.0587340 0.176202 (2936 pws)
       1       -64.1208      0.0625000
       2       -64.1149      0.0625000
       3       -64.1148      0.0625000
       4       -64.1138      0.0625000
       5       -30.9292      0.0625000
       6       -30.9291      0.0625000
       7       -30.9268      0.0625000
       8       -30.9155      0.0625000
       9       -30.9010      0.0625000
      10       -30.9009      0.0625000
      11       -30.8979      0.0625000
      12       -30.8939      0.0625000
      13       -30.8938      0.0625000
      14       -30.8933      0.0625000
      15       -30.8818      0.0625000
      16       -30.8755      0.0625000
      17       -8.30525      0.0625000
      18       -7.40517      0.0625000
      19       -7.40363      0.0625000
      20       -7.23104      0.0625000
      21        4.83356      0.0625000
      22        4.83413      0.0625000
      23        5.00026      0.0625000
      24        5.74615      0.0625000
      25        6.52448      0.0625000
      26        6.72964      0.0625000
      27        6.73093      0.0625000
      28        7.15998      0.0625000
      29        7.16074      0.0625000
      30        7.25901      0.0625000
      31        7.84999      0.0625000
      32        8.18157      0.0625000
      33        14.7949        0.00000
      34        18.3197        0.00000
      35        18.3199        0.00000
      36        18.3280        0.00000
      37        18.6870        0.00000
      38        18.6872        0.00000
      39        19.8097        0.00000
      40        20.5977        0.00000
      41        21.1480        0.00000
      42        21.2426        0.00000

 24/36 kpoint (Cartesian) = 0.176202 0.0587340 0.176202 (2917 pws)
       1       -64.1197      0.0625000
       2       -64.1150      0.0625000
       3       -64.1149      0.0625000
       4       -64.1147      0.0625000
       5       -30.9334      0.0625000
       6       -30.9333      0.0625000
       7       -30.9332      0.0625000
       8       -30.9117      0.0625000
       9       -30.9008      0.0625000
      10       -30.9008      0.0625000
      11       -30.9006      0.0625000
      12       -30.8907      0.0625000
      13       -30.8906      0.0625000
      14       -30.8906      0.0625000
      15       -30.8781      0.0625000
      16       -30.8780      0.0625000
      17       -8.13565      0.0625000
      18       -7.37228      0.0625000
      19       -7.37182      0.0625000
      20       -7.36996      0.0625000
      21        4.67353      0.0625000
      22        4.67412      0.0625000
      23        4.67429      0.0625000
      24        5.76587      0.0625000
      25        6.51839      0.0625000
      26        6.51877      0.0625000
      27        6.52026      0.0625000
      28        7.37978      0.0625000
      29        7.38064      0.0625000
      30        7.38084      0.0625000
      31        8.03113      0.0625000
      32        8.03113      0.0625000
      33        15.1799        0.00000
      34        17.8609        0.00000
      35        17.8610        0.00000
      36        17.8613        0.00000
      37        19.6757        0.00000
      38        19.6760        0.00000
      39        19.6760        0.00000
      40        20.7603        0.00000
      41        21.3697        0.00000
      42        21.3699        0.00000

 25/36 kpoint (Cartesian) = 0.117468 0.0587340 0.176202 (2930 pws)
       1       -64.1174      0.0625000
       2       -64.1172      0.0625000
       3       -64.1149      0.0625000
       4       -64.1148      0.0625000
       5       -30.9370      0.0625000
       6       -30.9369      0.0625000
       7       -30.9287      0.0625000
       8       -30.9287      0.0625000
       9       -30.9003      0.0625000
      10       -30.9002      0.0625000
      11       -30.8882      0.0625000
      12       -30.8882      0.0625000
      13       -30.8844      0.0625000
      14       -30.8843      0.0625000
      15       -30.8840      0.0625000
      16       -30.8840      0.0625000
      17       -7.73993      0.0625000
      18       -7.73845      0.0625000
      19       -7.33868      0.0625000
      20       -7.33712      0.0625000
      21        4.49537      0.0625000
      22        4.49580      0.0625000
      23        4.87304      0.0625000
      24        4.87305      0.0625000
      25        6.50210      0.0625000
      26        6.50335      0.0625000
      27        7.41397      0.0625000
      28        7.41455      0.0625000
      29        7.54289      0.0625000
      30        7.54299      0.0625000
      31        7.69064      0.0625000
      32        7.69211      0.0625000
      33        16.4087        0.00000
      34        16.4088        0.00000
      35        17.8245        0.00000
      36        17.8250        0.00000
      37        20.0796        0.00000
      38        20.0800        0.00000
      39        20.2524        0.00000
      40        20.2528        0.00000
      41        21.5685        0.00000
      42        21.5685        0.00000

 26/36 kpoint (Cartesian) = 0.0587340 0.0587340 0.176202 (2932 pws)
       1       -64.1197      0.0625000
       2       -64.1150      0.0625000
       3       -64.1149      0.0625000
       4       -64.1147      0.0625000
       5       -30.9334      0.0625000
       6       -30.9333      0.0625000
       7       -30.9332      0.0625000
       8       -30.9117      0.0625000
       9       -30.9008      0.0625000
      10       -30.9008      0.0625000
      11       -30.9006      0.0625000
      12       -30.8907      0.0625000
      13       -30.8906      0.0625000
      14       -30.8906      0.0625000
      15       -30.8781      0.0625000
      16       -30.8780      0.0625000
      17       -8.13565      0.0625000
      18       -7.37228      0.0625000
      19       -7.37182      0.0625000
      20       -7.36996      0.0625000
      21        4.67353      0.0625000
      22        4.67412      0.0625000
      23        4.67429      0.0625000
      24        5.76588      0.0625000
      25        6.51840      0.0625000
      26        6.51877      0.0625000
      27        6.52027      0.0625000
      28        7.37979      0.0625000
      29        7.38063      0.0625000
      30        7.38084      0.0625000
      31        8.03113      0.0625000
      32        8.03113      0.0625000
      33        15.1799        0.00000
      34        17.8609        0.00000
      35        17.8610        0.00000
      36        17.8613        0.00000
      37        19.6757        0.00000
      38        19.6760        0.00000
      39        19.6760        0.00000
      40        20.7603        0.00000
      41        21.3697        0.00000
      42        21.3698        0.00000

 27/36 kpoint (Cartesian) = 0.00000 0.00000 0.117468 (2922 pws)
       1       -64.1186      0.0312500
       2       -64.1184      0.0312500
       3       -64.1138      0.0312500
       4       -64.1136      0.0312500
       5       -30.9186      0.0312500
       6       -30.9186      0.0312500
       7       -30.9184      0.0312500
       8       -30.9184      0.0312500
       9       -30.9080      0.0312500
      10       -30.9079      0.0312500
      11       -30.9011      0.0312500
      12       -30.9009      0.0312500
      13       -30.8868      0.0312500
      14       -30.8868      0.0312500
      15       -30.8866      0.0312500
      16       -30.8866      0.0312500
      17       -7.98599      0.0312500
      18       -7.98513      0.0312500
      19       -7.19780      0.0312500
      20       -7.19685      0.0312500
      21        5.51908      0.0312500
      22        5.51909      0.0312500
      23        5.51972      0.0312500
      24        5.51973      0.0312500
      25        5.79681      0.0312500
      26        5.79741      0.0312500
      27        6.64898      0.0312500
      28        6.64976      0.0312500
      29        7.64468      0.0312500
      30        7.64469      0.0312500
      31        7.64553      0.0312500
      32        7.64554      0.0312500
      33        16.1253        0.00000
      34        16.1254        0.00000
      35        19.4970        0.00000
      36        19.4971        0.00000
      37        19.8035        0.00000
      38        19.8035        0.00000
      39        19.8039        0.00000
      40        19.8039        0.00000
      41        20.1866        0.00000
      42        20.1868        0.00000

 28/36 kpoint (Cartesian) = 0.176202 0.00000 0.117468 (2918 pws)
       1       -64.1179      0.0625000
       2       -64.1177      0.0625000
       3       -64.1145      0.0625000
       4       -64.1143      0.0625000
       5       -30.9254      0.0625000
       6       -30.9253      0.0625000
       7       -30.9170      0.0625000
       8       -30.9170      0.0625000
       9       -30.9139      0.0625000
      10       -30.9138      0.0625000
      11       -30.8914      0.0625000
      12       -30.8914      0.0625000
      13       -30.8913      0.0625000
      14       -30.8912      0.0625000
      15       -30.8821      0.0625000
      16       -30.8821      0.0625000
      17       -7.84989      0.0625000
      18       -7.84901      0.0625000
      19       -7.28811      0.0625000
      20       -7.28717      0.0625000
      21        5.09225      0.0625000
      22        5.09249      0.0625000
      23        5.42610      0.0625000
      24        5.42639      0.0625000
      25        5.76864      0.0625000
      26        5.76931      0.0625000
      27        7.22211      0.0625000
      28        7.22247      0.0625000
      29        7.25074      0.0625000
      30        7.25155      0.0625000
      31        7.76903      0.0625000
      32        7.76947      0.0625000
      33        16.5516        0.00000
      34        16.5517        0.00000
      35        18.8644        0.00000
      36        18.8647        0.00000
      37        19.7516        0.00000
      38        19.7519        0.00000
      39        19.8815        0.00000
      40        19.8818        0.00000
      41        20.7503        0.00000
      42        20.7504        0.00000

 29/36 kpoint (Cartesian) = 0.117468 0.00000 0.117468 (2946 pws)
       1       -64.1162      0.0312500
       2       -64.1162      0.0312500
       3       -64.1161      0.0312500
       4       -64.1158      0.0312500
       5       -30.9268      0.0312500
       6       -30.9268      0.0312500
       7       -30.9266      0.0312500
       8       -30.9266      0.0312500
       9       -30.9026      0.0312500
      10       -30.9026      0.0312500
      11       -30.9026      0.0312500
      12       -30.9024      0.0312500
      13       -30.8821      0.0312500
      14       -30.8821      0.0312500
      15       -30.8820      0.0312500
      16       -30.8819      0.0312500
      17       -7.54683      0.0312500
      18       -7.54622      0.0312500
      19       -7.54611      0.0312500
      20       -7.54368      0.0312500
      21        4.96776      0.0312500
      22        4.96781      0.0312500
      23        4.96884      0.0312500
      24        4.96888      0.0312500
      25        6.44060      0.0312500
      26        6.44111      0.0312500
      27        6.44118      0.0312500
      28        6.44315      0.0312500
      29        7.73692      0.0312500
      30        7.73694      0.0312500
      31        7.73850      0.0312500
      32        7.73852      0.0312500
      33        17.5593        0.00000
      34        17.5596        0.00000
      35        17.5597        0.00000
      36        17.5598        0.00000
      37        19.9660        0.00000
      38        19.9662        0.00000
      39        19.9663        0.00000
      40        19.9670        0.00000
      41        22.0552        0.00000
      42        22.0553        0.00000

 30/36 kpoint (Cartesian) = 0.00000 0.176202 0.117468 (2932 pws)
       1       -64.1179      0.0625000
       2       -64.1177      0.0625000
       3       -64.1145      0.0625000
       4       -64.1143      0.0625000
       5       -30.9254      0.0625000
       6       -30.9253      0.0625000
       7       -30.9170      0.0625000
       8       -30.9170      0.0625000
       9       -30.9139      0.0625000
      10       -30.9138      0.0625000
      11       -30.8914      0.0625000
      12       -30.8914      0.0625000
      13       -30.8913      0.0625000
      14       -30.8912      0.0625000
      15       -30.8821      0.0625000
      16       -30.8821      0.0625000
      17       -7.84988      0.0625000
      18       -7.84901      0.0625000
      19       -7.28811      0.0625000
      20       -7.28717      0.0625000
      21        5.09224      0.0625000
      22        5.09249      0.0625000
      23        5.42610      0.0625000
      24        5.42638      0.0625000
      25        5.76865      0.0625000
      26        5.76930      0.0625000
      27        7.22211      0.0625000
      28        7.22247      0.0625000
      29        7.25074      0.0625000
      30        7.25154      0.0625000
      31        7.76902      0.0625000
      32        7.76947      0.0625000
      33        16.5516        0.00000
      34        16.5517        0.00000
      35        18.8644        0.00000
      36        18.8647        0.00000
      37        19.7516        0.00000
      38        19.7519        0.00000
      39        19.8815        0.00000
      40        19.8818        0.00000
      41        20.7503        0.00000
      42        20.7504        0.00000

 31/36 kpoint (Cartesian) = 0.176202 0.176202 0.117468 (2930 pws)
       1       -64.1174      0.0625000
       2       -64.1172      0.0625000
       3       -64.1150      0.0625000
       4       -64.1148      0.0625000
       5       -30.9370      0.0625000
       6       -30.9369      0.0625000
       7       -30.9287      0.0625000
       8       -30.9287      0.0625000
       9       -30.9003      0.0625000
      10       -30.9002      0.0625000
      11       -30.8882      0.0625000
      12       -30.8881      0.0625000
      13       -30.8844      0.0625000
      14       -30.8842      0.0625000
      15       -30.8840      0.0625000
      16       -30.8840      0.0625000
      17       -7.73963      0.0625000
      18       -7.73875      0.0625000
      19       -7.33837      0.0625000
      20       -7.33743      0.0625000
      21        4.49547      0.0625000
      22        4.49570      0.0625000
      23        4.87304      0.0625000
      24        4.87305      0.0625000
      25        6.50235      0.0625000
      26        6.50309      0.0625000
      27        7.41407      0.0625000
      28        7.41444      0.0625000
      29        7.54292      0.0625000
      30        7.54296      0.0625000
      31        7.69094      0.0625000
      32        7.69180      0.0625000
      33        16.4087        0.00000
      34        16.4088        0.00000
      35        17.8246        0.00000
      36        17.8249        0.00000
      37        20.0797        0.00000
      38        20.0799        0.00000
      39        20.2524        0.00000
      40        20.2527        0.00000
      41        21.5685        0.00000
      42        21.5685        0.00000

 32/36 kpoint (Cartesian) = 0.117468 0.176202 0.117468 (2936 pws)
       1       -64.1162      0.0625000
       2       -64.1162      0.0625000
       3       -64.1161      0.0625000
       4       -64.1158      0.0625000
       5       -30.9402      0.0625000
       6       -30.9401      0.0625000
       7       -30.9401      0.0625000
       8       -30.9401      0.0625000
       9       -30.8899      0.0625000
      10       -30.8899      0.0625000
      11       -30.8899      0.0625000
      12       -30.8898      0.0625000
      13       -30.8821      0.0625000
      14       -30.8821      0.0625000
      15       -30.8819      0.0625000
      16       -30.8819      0.0625000
      17       -7.50948      0.0625000
      18       -7.50887      0.0625000
      19       -7.50876      0.0625000
      20       -7.50632      0.0625000
      21        4.31456      0.0625000
      22        4.31499      0.0625000
      23        4.31520      0.0625000
      24        4.31535      0.0625000
      25        7.19733      0.0625000
      26        7.19744      0.0625000
      27        7.19775      0.0625000
      28        7.19905      0.0625000
      29        7.73740      0.0625000
      30        7.73743      0.0625000
      31        7.73898      0.0625000
      32        7.73900      0.0625000
      33        16.7226        0.00000
      34        16.7226        0.00000
      35        16.7227        0.00000
      36        16.7231        0.00000
      37        20.3696        0.00000
      38        20.3700        0.00000
      39        20.3702        0.00000
      40        20.3703        0.00000
      41        23.0541        0.00000
      42        23.0542        0.00000

 33/36 kpoint (Cartesian) = 0.0587340 0.176202 0.117468 (2926 pws)
       1       -64.1174      0.0625000
       2       -64.1172      0.0625000
       3       -64.1150      0.0625000
       4       -64.1148      0.0625000
       5       -30.9370      0.0625000
       6       -30.9369      0.0625000
       7       -30.9287      0.0625000
       8       -30.9287      0.0625000
       9       -30.9003      0.0625000
      10       -30.9002      0.0625000
      11       -30.8882      0.0625000
      12       -30.8881      0.0625000
      13       -30.8844      0.0625000
      14       -30.8842      0.0625000
      15       -30.8840      0.0625000
      16       -30.8840      0.0625000
      17       -7.73963      0.0625000
      18       -7.73875      0.0625000
      19       -7.33837      0.0625000
      20       -7.33743      0.0625000
      21        4.49547      0.0625000
      22        4.49570      0.0625000
      23        4.87304      0.0625000
      24        4.87306      0.0625000
      25        6.50236      0.0625000
      26        6.50308      0.0625000
      27        7.41408      0.0625000
      28        7.41444      0.0625000
      29        7.54292      0.0625000
      30        7.54296      0.0625000
      31        7.69094      0.0625000
      32        7.69181      0.0625000
      33        16.4087        0.00000
      34        16.4088        0.00000
      35        17.8246        0.00000
      36        17.8249        0.00000
      37        20.0797        0.00000
      38        20.0799        0.00000
      39        20.2524        0.00000
      40        20.2527        0.00000
      41        21.5685        0.00000
      42        21.5685        0.00000

 34/36 kpoint (Cartesian) = 0.00000 0.117468 0.117468 (2938 pws)
       1       -64.1162      0.0312500
       2       -64.1162      0.0312500
       3       -64.1161      0.0312500
       4       -64.1158      0.0312500
       5       -30.9268      0.0312500
       6       -30.9267      0.0312500
       7       -30.9267      0.0312500
       8       -30.9266      0.0312500
       9       -30.9027      0.0312500
      10       -30.9026      0.0312500
      11       -30.9026      0.0312500
      12       -30.9024      0.0312500
      13       -30.8821      0.0312500
      14       -30.8821      0.0312500
      15       -30.8820      0.0312500
      16       -30.8819      0.0312500
      17       -7.54683      0.0312500
      18       -7.54622      0.0312500
      19       -7.54611      0.0312500
      20       -7.54368      0.0312500
      21        4.96779      0.0312500
      22        4.96786      0.0312500
      23        4.96881      0.0312500
      24        4.96885      0.0312500
      25        6.44059      0.0312500
      26        6.44110      0.0312500
      27        6.44121      0.0312500
      28        6.44314      0.0312500
      29        7.73698      0.0312500
      30        7.73699      0.0312500
      31        7.73845      0.0312500
      32        7.73846      0.0312500
      33        17.5593        0.00000
      34        17.5596        0.00000
      35        17.5597        0.00000
      36        17.5598        0.00000
      37        19.9660        0.00000
      38        19.9661        0.00000
      39        19.9663        0.00000
      40        19.9670        0.00000
      41        22.0551        0.00000
      42        22.0553        0.00000

 35/36 kpoint (Cartesian) = 0.176202 0.117468 0.117468 (2930 pws)
       1       -64.1162      0.0625000
       2       -64.1162      0.0625000
       3       -64.1161      0.0625000
       4       -64.1158      0.0625000
       5       -30.9402      0.0625000
       6       -30.9401      0.0625000
       7       -30.9401      0.0625000
       8       -30.9401      0.0625000
       9       -30.8900      0.0625000
      10       -30.8899      0.0625000
      11       -30.8899      0.0625000
      12       -30.8898      0.0625000
      13       -30.8820      0.0625000
      14       -30.8820      0.0625000
      15       -30.8820      0.0625000
      16       -30.8819      0.0625000
      17       -7.50948      0.0625000
      18       -7.50887      0.0625000
      19       -7.50876      0.0625000
      20       -7.50632      0.0625000
      21        4.31456      0.0625000
      22        4.31502      0.0625000
      23        4.31518      0.0625000
      24        4.31534      0.0625000
      25        7.19731      0.0625000
      26        7.19739      0.0625000
      27        7.19782      0.0625000
      28        7.19906      0.0625000
      29        7.73746      0.0625000
      30        7.73747      0.0625000
      31        7.73894      0.0625000
      32        7.73895      0.0625000
      33        16.7226        0.00000
      34        16.7226        0.00000
      35        16.7227        0.00000
      36        16.7231        0.00000
      37        20.3696        0.00000
      38        20.3700        0.00000
      39        20.3702        0.00000
      40        20.3703        0.00000
      41        23.0541        0.00000
      42        23.0542        0.00000

 36/36 kpoint (Cartesian) = 0.117468 0.117468 0.117468 (2916 pws)
       1       -64.1162      0.0312500
       2       -64.1161      0.0312500
       3       -64.1161      0.0312500
       4       -64.1158      0.0312500
       5       -30.9489      0.0312500
       6       -30.9488      0.0312500
       7       -30.9488      0.0312500
       8       -30.9488      0.0312500
       9       -30.8821      0.0312500
      10       -30.8820      0.0312500
      11       -30.8820      0.0312500
      12       -30.8820      0.0312500
      13       -30.8820      0.0312500
      14       -30.8819      0.0312500
      15       -30.8819      0.0312500
      16       -30.8818      0.0312500
      17       -7.47155      0.0312500
      18       -7.47093      0.0312500
      19       -7.47082      0.0312500
      20       -7.46838      0.0312500
      21        3.89164      0.0312500
      22        3.89215      0.0312500
      23        3.89217      0.0312500
      24        3.89234      0.0312500
      25        7.73783      0.0312500
      26        7.73788      0.0312500
      27        7.73793      0.0312500
      28        7.73826      0.0312500
      29        7.73826      0.0312500
      30        7.73975      0.0312500
      31        7.73977      0.0312500
      32        7.73987      0.0312500
      33        16.0798        0.00000
      34        16.0800        0.00000
      35        16.0800        0.00000
      36        16.0805        0.00000
      37        20.6031        0.00000
      38        20.6037        0.00000
      39        20.6037        0.00000
      40        20.6039        0.00000
      41        24.4015        0.00000
      42        24.4016        0.00000



 --------------------------------------------
 !FINAL_ETOT_IS -7665.688319476743 eV
 --------------------------------------------






  |CLASS_NAME---------|NAME---------------|TIME(Sec)-----|CALLS----|AVG------|PER%-------
                                      total         1969.2        15   1.3e+02   1.0e+02%
                 Driver         driver_line         1969.2         1   2.0e+03    1.e+02%
               PW_Basis      setuptransform        0.19103         1      0.19    0.0097%
          ESolver_KS_PW                 Run         1968.8         1   2.0e+03    1.e+02%
              Potential  update_from_charge        0.43778         9     0.049     0.022%
              Potential           cal_v_eff        0.43640         9     0.048     0.022%
               PW_Basis          real2recip        0.13288        70    0.0019    0.0067%
                  PotXC           cal_v_eff        0.38971         9     0.043     0.020%
          XC_Functional                v_xc        0.38844         9     0.043     0.020%
              HSolverPW               solve         1968.2         8   2.5e+02    1.e+02%
               Nonlocal              getvnl        0.94853       288    0.0033     0.048%
            pp_cell_vnl              getvnl        0.94246       288    0.0033     0.048%
                 WF_igk              get_sk        0.27812      2592   0.00011     0.014%
        DiagoIterAssist      diagH_subspace         78.338       288      0.27       4.0%
             OperatorPW                hPsi         880.18     43927     0.020       45.%
               Operator          EkineticPW        0.47081     43927   1.1e-05     0.024%
               Operator              VeffPW         185.72     43927    0.0042       9.4%
             PW_Basis_K          recip2real         101.55     64951    0.0016       5.2%
             PW_Basis_K    gathers_scatterp         52.987     64951   0.00082       2.7%
             PW_Basis_K          real2recip         83.429     55735    0.0015       4.2%
             PW_Basis_K    gatherp_scatters         44.211     55735   0.00079       2.2%
               Operator          NonlocalPW         693.42     43927     0.016       35.%
               Nonlocal     add_nonlocal_pp         279.19     43927    0.0064       14.%
        DiagoIterAssist     LAPACK_subspace         28.845       288      0.10       1.5%
                DiagoCG           diag_once         1873.9       288       6.5       95.%
            ElecStatePW            psiToRho         11.534         8       1.4      0.59%
 ----------------------------------------------------------------------------------------

 CLASS_NAME---------|NAME---------------|MEMORY(MB)--------
                                         80.84
             wavefunc                 psi          67.97
        Charge_Mixing                Rrho          3.204
        Charge_Mixing               dRrho          2.803
        Charge_Mixing                drho          2.803
 ----------------------------------------------------------

 Start  Time  : Sat Dec  3 05:23:49 2022
 Finish Time  : Sat Dec  3 05:56:39 2022
 Total  Time  : 0 h 32 mins 50 secs 
